4
Properties=species:S:1:pos:R:3:forces_ref:R:3 energy_ref=-15.616174050639652 pbc="F F F"
C        0.17505694      -0.41849994      -0.27680600       1.63583571       4.48928648      -2.86787378
O       -0.25140106       0.51732206       0.38335600       0.41638721      -1.62618945      -0.80783959
H        0.79426994      -0.20976294      -1.37683900      -1.63754509      -0.40713221       2.64492210
H        0.16659694      -1.41781394      -0.02917300      -0.41467783      -2.45596482       1.03079123
4
Properties=species:S:1:pos:R:3:forces_ref:R:3 energy_ref=-16.044327719043466 pbc="F F F"
C        0.17058431      -0.40411169      -0.29235175       0.28403159       0.20217552      -1.28595642
O       -0.21422669       0.51703631       0.38335625       0.16277943      -0.00688912      -0.11304602
H        0.65584431      -0.26645769      -1.33020275      -0.48712859       0.01878777       1.24719251
H        0.03446331      -1.44516269       0.01746325       0.04031757      -0.21407413       0.15180992
4
Properties=species:S:1:pos:R:3:forces_ref:R:3 energy_ref=-15.911673365012215 pbc="F F F"
C        0.16311831      -0.38995763      -0.31895713      -0.17032228      -1.21837024       3.04144259
O       -0.22330069       0.50081038       0.38335588      -0.53206048       0.95423148       0.20290232
H        0.55285831      -0.26898563      -1.25038512       0.93001791       0.71301843      -3.21689535
H        0.25483731      -1.39775162       0.09728087      -0.22763516      -0.44887968      -0.02744956
4
Properties=species:S:1:pos:R:3:forces_ref:R:3 energy_ref=-16.080848314488346 pbc="F F F"
C        0.17479950      -0.39656388      -0.30096212       0.15391417      -0.63738845      -0.03414266
O       -0.22498450       0.51001713       0.38335588      -0.03193033       0.09378701      -0.00070896
H        0.61625650      -0.24042487      -1.30437013      -0.09233053       0.09847712       0.12814893
H        0.13482250      -1.46032888       0.04329588      -0.02965331       0.44512433      -0.09329737
4
Properties=species:S:1:pos:R:3:forces_ref:R:3 energy_ref=-15.759988902807518 pbc="F F F"
C        0.16039762      -0.38042813      -0.26677387       2.53398089      -2.82681331      -5.38057134
O       -0.22547837       0.49670088       0.38335612      -1.36521829       2.35622699       2.57190734
H        0.52865562      -0.22609512      -1.40693588      -0.70982600       0.13052396       1.81109544
H        0.31278562      -1.46494313      -0.05926987      -0.45893665       0.34006236       0.99756856
4
Properties=species:S:1:pos:R:3:forces_ref:R:3 energy_ref=-16.071504812571412 pbc="F F F"
C        0.17415544      -0.39851069      -0.30027762       0.29673088      -0.48807661      -0.18321472
O       -0.22667056       0.51164731       0.38335637       0.02636265      -0.14822647      -0.13381678
H        0.64118744      -0.23137169      -1.30642562      -0.28368963      -0.02088446       0.48883617
H        0.12724444      -1.47074269       0.04124038      -0.03940396       0.65718754      -0.17180467
4
Properties=species:S:1:pos:R:3:forces_ref:R:3 energy_ref=-15.991821957656052 pbc="F F F"
C        0.18703106      -0.38334631      -0.28291688       0.32350476      -2.21078255      -2.37506403
O       -0.22652794       0.50101669       0.38335612      -0.44105447       1.10043548       1.37157236
H        0.49593506      -0.21481231      -1.35850688       0.06222389       0.02076351       0.71031908
H        0.19410206      -1.49324331      -0.01084087       0.05532582       1.08958357       0.29317258
4
Properties=species:S:1:pos:R:3:forces_ref:R:3 energy_ref=-15.93273215314421 pbc="F F F"
C        0.16492419      -0.41104225      -0.32887300      -1.59848560       0.24626115       4.04266181
O       -0.20776981       0.52214875       0.38335600       0.54873491      -0.47025470      -1.43650378
H        0.69799219      -0.30421725      -1.22063800       0.80875979       0.31233712      -1.73060329
H       -0.02537881      -1.40671925       0.12702800       0.24099091      -0.08834357      -0.87555474
4
Properties=species:S:1:pos:R:3:forces_ref:R:3 energy_ref=-16.01730527799894 pbc="F F F"
C        0.17736550      -0.40320919      -0.29202400       0.62708285       0.63119677      -1.24759828
O       -0.23290050       0.51545081       0.38335600       0.25263255      -0.54331708      -0.44440683
H        0.69440450      -0.25068419      -1.33118500      -0.77603772      -0.01133543       1.50195826
H        0.10460650      -1.45366719       0.01648100      -0.10367769      -0.07654427       0.19004686
4
Properties=species:S:1:pos:R:3:forces_ref:R:3 energy_ref=-15.659021857291357 pbc="F F F"
C        0.17573063      -0.37006225      -0.26251100       0.69441218      -5.30163188      -5.51592255
O       -0.19965537       0.50512775       0.38335600      -0.99308816       3.29730106       2.83672348
H        0.46294763      -0.30968125      -1.41972400       0.03058291       0.67004018       1.81669494
H        0.07991163      -1.51096725      -0.07205800       0.26809306       1.33429064       0.86250413
4
Properties=species:S:1:pos:R:3:forces_ref:R:3 energy_ref=-16.04502697318669 pbc="F F F"
C        0.17222481      -0.39764231      -0.29429387       0.70038033      -0.54395857      -1.06846072
O       -0.22740719       0.51203169       0.38335612      -0.04478857      -0.06759801       0.01816356
H        0.65373081      -0.23466231      -1.32437588      -0.55045358      -0.03765134       1.05951472
H        0.13217781      -1.47573731       0.02329013      -0.10513818       0.64920792      -0.00921756
4
Properties=species:S:1:pos:R:3:forces_ref:R:3 energy_ref=-15.853239575342272 pbc="F F F"
C        0.16968000      -0.38469306      -0.27299187       1.11417854      -1.17694966      -4.64791929
O       -0.21187700       0.50015694       0.38335612      -0.91642274       2.38814909       2.13202390
H        0.48086700      -0.28234006      -1.38828188      -0.17724996       0.47458279       1.18867523
H        0.19606900      -1.41075706      -0.04061587      -0.02050578      -1.68578222       1.32722016
4
Properties=species:S:1:pos:R:3:forces_ref:R:3 energy_ref=-16.05292159576573 pbc="F F F"
C        0.17723600      -0.41104625      -0.29468375      -0.12273424       1.35138930      -0.95740361
O       -0.21636000       0.51375175       0.38335625       0.21418726      -0.33758201      -0.06694834
H        0.61190600      -0.20757725      -1.32320675      -0.19759094      -0.37236925       0.86387890
H        0.05555800      -1.43615925       0.02445925       0.10613792      -0.64143799       0.16047305
4
Properties=species:S:1:pos:R:3:forces_ref:R:3 energy_ref=-16.070329514930897 pbc="F F F"
C        0.17562300      -0.39496819      -0.29758687       0.33844632      -0.82093685      -0.50101744
O       -0.22701600       0.51014381       0.38335612      -0.04724315       0.10526925       0.06310948
H        0.62313900      -0.24190919      -1.31449688      -0.23836889       0.09494000       0.48377382
H        0.13925100      -1.46943219       0.03316913      -0.05283422       0.62072755      -0.04586586
4
Properties=species:S:1:pos:R:3:forces_ref:R:3 energy_ref=-15.996365571517655 pbc="F F F"
C        0.18090131      -0.40810887      -0.31818912      -0.46920065       0.47230757       2.24748048
O       -0.23812869       0.52058912       0.38335588       0.70423292      -1.37322466      -1.60758114
H        0.75592031      -0.25044187      -1.25268913      -0.35996265      -0.00673094       0.19275382
H        0.06370131      -1.46561787       0.09497688       0.12493032       0.90764803      -0.83265316
4
Properties=species:S:1:pos:R:3:forces_ref:R:3 energy_ref=-15.618392548193327 pbc="F F F"
C        0.16680187      -0.36814737      -0.27939713       2.89387874      -3.98963049      -3.09826722
O       -0.25074212       0.50744963       0.38335588      -0.69751046       1.04481870       0.74946372
H        0.71713288      -0.31722538      -1.36906513      -1.35301717       0.89136811       1.91723603
H        0.28799287      -1.53348737      -0.02139913      -0.84335111       2.05344368       0.43156746
4
Properties=species:S:1:pos:R:3:forces_ref:R:3 energy_ref=-16.073960453625947 pbc="F F F"
C        0.17372413      -0.40059794      -0.30002800       0.37231577      -0.14594328      -0.29470367
O       -0.22734787       0.51079206       0.38335600      -0.00306074      -0.21782023      -0.09337358
H        0.63673012      -0.21647294      -1.30717300      -0.30361717      -0.12823455       0.51727360
H        0.13970812      -1.46627594       0.04049300      -0.06563785       0.49199811      -0.12919635
4
Properties=species:S:1:pos:R:3:forces_ref:R:3 energy_ref=-16.045523618587442 pbc="F F F"
C        0.18379806      -0.39625919      -0.30675575      -0.91859851      -0.74415059       1.51795808
O       -0.22126394       0.50722781       0.38335625       0.07846226       0.22607799       0.05662968
H        0.54663206      -0.23266519      -1.28699075       0.64107181       0.21308050      -1.35591609
H        0.12069106      -1.44760219       0.06067525       0.19906444       0.30499210      -0.21867167
4
Properties=species:S:1:pos:R:3:forces_ref:R:3 energy_ref=-15.709722450160006 pbc="F F F"
C        0.19256931      -0.43147706      -0.32214888      -2.54976129       3.52964642       3.81612148
O       -0.21036269       0.51714094       0.38335613       0.91839807      -0.97213135      -1.17673302
H        0.57605831      -0.20259306      -1.24081087       1.39715032      -0.05043919      -2.63467671
H       -0.04857269      -1.34567206       0.10685512       0.23421286      -2.50707589      -0.00471175
4
Properties=species:S:1:pos:R:3:forces_ref:R:3 energy_ref=-15.920413811538735 pbc="F F F"
C        0.17324987      -0.38918262      -0.28561712       1.02807619      -2.00045874      -2.09524874
O       -0.22791512       0.50939238       0.38335588      -0.30631873       0.31486796       0.67870876
H        0.62625987      -0.20424562      -1.35040512      -0.60312480      -0.20911858       1.48970165
H        0.15756188      -1.53579762      -0.00273913      -0.11863271       1.89470936      -0.07316167
4
Properties=species:S:1:pos:R:3:forces_ref:R:3 energy_ref=-15.887612274536169 pbc="F F F"
C        0.19014981      -0.37905381      -0.27301687      -0.02721719      -2.96844367      -3.76236671
O       -0.21342919       0.50180619       0.38335612      -0.53732918       2.03074125       1.98236337
H        0.44194581      -0.26156881      -1.38820687       0.25953386       0.32409452       1.08879851
H        0.12458881      -1.47855781      -0.04054087       0.30501251       0.61360791       0.69120483
4
Properties=species:S:1:pos:R:3:forces_ref:R:3 energy_ref=-16.015605669113736 pbc="F F F"
C        0.17231856      -0.40137969      -0.29138225       0.76143766      -0.15769796      -1.38486620
O       -0.22740144       0.51373731       0.38335575       0.02682298      -0.31777207      -0.04695154
H        0.67047056      -0.21875369      -1.33310925      -0.71532878      -0.22841451       1.44789922
H        0.11482956      -1.48286669       0.01455675      -0.07293187       0.70388454      -0.01608148
4
Properties=species:S:1:pos:R:3:forces_ref:R:3 energy_ref=-16.066268308303098 pbc="F F F"
C        0.17442625      -0.40065806      -0.30060887       0.32880889      -0.25221413      -0.16363484
O       -0.22805975       0.51152894       0.38335612       0.04043065      -0.32363979      -0.16765450
H        0.64480125      -0.21269406      -1.30543087      -0.32635786      -0.16581416       0.56107080
H        0.13311925      -1.47558906       0.04223512      -0.04288168       0.74166808      -0.22978146
4
Properties=species:S:1:pos:R:3:forces_ref:R:3 energy_ref=-16.072738435994538 pbc="F F F"
C        0.17548731      -0.39841750      -0.29681363       0.22067549      -0.46781334      -0.60084788
O       -0.22389469       0.51153950       0.38335638       0.01967413      -0.00228838       0.02283988
H        0.62501331      -0.23503950      -1.31681763      -0.25242229      -0.01539566       0.62510048
H        0.11322031      -1.46677150       0.03084837       0.01207267       0.48549738      -0.04709253
4
Properties=species:S:1:pos:R:3:forces_ref:R:3 energy_ref=-15.96030383977002 pbc="F F F"
C        0.17139631      -0.39176081      -0.28350175       1.32893041      -1.36745083      -2.58233851
O       -0.22986869       0.50540819       0.38335625      -0.47577938       0.46731516       0.94406488
H        0.60006131      -0.18995081      -1.35675275      -0.59559049      -0.27881256       1.45297833
H        0.21051031      -1.50274981      -0.00908675      -0.25756054       1.17894828       0.18529536
4
Properties=species:S:1:pos:R:3:forces_ref:R:3 energy_ref=-16.061513871289186 pbc="F F F"
C        0.17677962      -0.39337144      -0.29267175       0.60425521      -0.68530266      -1.25245129
O       -0.22995237       0.50750056       0.38335625      -0.17119681       0.29538692       0.32621969
H        0.60509062      -0.24020544      -1.32924275      -0.30955915       0.11899154       0.70059527
H        0.17385063      -1.45957044       0.01842325      -0.12349920       0.27092421       0.22563633
4
Properties=species:S:1:pos:R:3:forces_ref:R:3 energy_ref=-15.753907769579202 pbc="F F F"
C        0.16986937      -0.37830737      -0.31846900      -0.07404855      -3.23444658       2.89768542
O       -0.23003462       0.50593862       0.38335600      -0.30461409       0.24421749       0.07668676
H        0.61029437      -0.21394037      -1.25185000       0.63737678       0.29409684      -1.91122140
H        0.21076637      -1.56372438       0.09581600      -0.25871414       2.69613231      -1.06315083
4
Properties=species:S:1:pos:R:3:forces_ref:R:3 energy_ref=-15.82651478185345 pbc="F F F"
C        0.17064612      -0.43038394      -0.31923475       0.20409002       2.55150599       1.50678936
O       -0.23134287       0.51734406       0.38335625       0.32946458      -2.11791569      -1.10003942
H        0.72774812      -0.06380194      -1.24955375      -0.65164198      -1.48658831       0.66126269
H        0.09911812      -1.49264694       0.09811225       0.11808738       1.05299795      -1.06801263
4
Properties=species:S:1:pos:R:3:forces_ref:R:3 energy_ref=-15.77191761913406 pbc="F F F"
C        0.19025188      -0.37144444      -0.27436388      -0.14543333      -4.46254978      -3.28963866
O       -0.21371413       0.50722756       0.38335612      -0.42399351       1.90036780       1.68686841
H        0.49653688      -0.28578644      -1.38416587       0.13743411       0.48131260       1.27772714
H        0.07166488      -1.54336744      -0.03649988       0.43199272       2.08086943       0.32504310
4
Properties=species:S:1:pos:R:3:forces_ref:R:3 energy_ref=-16.077102438517986 pbc="F F F"
C        0.17640894      -0.39615650      -0.30206675      -0.17450294      -0.86825523       0.30289305
O       -0.22117406       0.50900850       0.38335625      -0.04503509       0.21659144       0.14702165
H        0.58614394      -0.23096350      -1.30105775       0.15196069       0.06918685      -0.26852274
H        0.12479494      -1.46416550       0.04660825       0.06757734       0.58247699      -0.18139196
4
Properties=species:S:1:pos:R:3:forces_ref:R:3 energy_ref=-15.900305135426557 pbc="F F F"
C        0.18393206      -0.41258619      -0.30820850      -0.22941796       0.67027014       1.07073116
O       -0.23846294       0.52376081       0.38335650       0.80510368      -1.84963602      -1.49665484
H        0.77980306      -0.19861419      -1.28263350      -0.91802294      -0.54707639       1.34336648
H        0.02430806      -1.51595519       0.06503250       0.34233722       1.72644227      -0.91744280
4
Properties=species:S:1:pos:R:3:forces_ref:R:3 energy_ref=-15.596187832948331 pbc="F F F"
C        0.18912094      -0.35552256      -0.26827187       0.71226232      -5.88598726      -4.83390077
O       -0.21650506       0.50222244       0.38335613      -1.00057254       3.63845696       2.43779843
H        0.46097394      -0.41846656      -1.40244188       0.11242643       1.64438833       1.15003916
H        0.13634094      -1.46617756      -0.05477588       0.17588378       0.60314202       1.24606318
4
Properties=species:S:1:pos:R:3:forces_ref:R:3 energy_ref=-16.076813101455507 pbc="F F F"
C        0.17598656      -0.39493956      -0.29883813       0.18407449      -0.81850402      -0.28871485
O       -0.22533844       0.50996444       0.38335587      -0.03810668       0.17308498       0.06553197
H        0.61355356      -0.24660956      -1.31074212      -0.12409842       0.14060850       0.26665011
H        0.13323456      -1.46346856       0.03692388      -0.02186939       0.50481059      -0.04346718
4
Properties=species:S:1:pos:R:3:forces_ref:R:3 energy_ref=-16.04342057551639 pbc="F F F"
C        0.17616025      -0.38874906      -0.30575575       0.41604401      -1.48346699       0.73183166
O       -0.23652275       0.50675794       0.38335625      -0.13240987       0.08303882      -0.09155812
H        0.62574925      -0.24436706      -1.28999075      -0.04449654       0.29529765      -0.36231186
H        0.20947125      -1.47720206       0.05767525      -0.23913760       1.10513052      -0.27796162
4
Properties=species:S:1:pos:R:3:forces_ref:R:3 energy_ref=-16.07736916485 pbc="F F F"
C        0.17659881      -0.39616106      -0.29932663       0.17744943      -0.68243536      -0.21556598
O       -0.22662119       0.50970694       0.38335637      -0.02458911       0.04950886       0.03757374
H        0.61431381      -0.23370406      -1.30927862      -0.13031221       0.05138947       0.27151720
H        0.13906281      -1.46698506       0.03838738      -0.02254811       0.58153709      -0.09352491
4
Properties=species:S:1:pos:R:3:forces_ref:R:3 energy_ref=-15.825285482890543 pbc="F F F"
C        0.18082369      -0.40511962      -0.32676688      -0.61281086      -0.23866380       3.39007002
O       -0.24318531       0.51936437       0.38335612       0.64384984      -1.74443552      -1.68479765
H        0.76413569      -0.19160762      -1.22695687      -0.17475471      -0.26407967      -0.26882598
H        0.09640469      -1.53258962       0.12070912       0.14371578       2.24717899      -1.43644639
4
Properties=species:S:1:pos:R:3:forces_ref:R:3 energy_ref=-16.04076374612649 pbc="F F F"
C        0.18475081      -0.40357875      -0.28854775      -0.21414380       0.72553626      -1.52433632
O       -0.22053119       0.51200725       0.38335625       0.21377429      -0.00046969       0.12800012
H        0.58853081      -0.23863675      -1.34161475      -0.12205352      -0.06946000       1.00558907
H        0.06721381      -1.43594875       0.00605125       0.12242303      -0.65560657       0.39074708
4
Properties=species:S:1:pos:R:3:forces_ref:R:3 energy_ref=-15.90175361641699 pbc="F F F"
C        0.16955938      -0.38315350      -0.27941100       1.33154656      -2.77651729      -3.07493744
O       -0.22292163       0.50811950       0.38335600      -0.55545356       1.13823064       1.16773729
H        0.60456538      -0.25240450      -1.36902400      -0.60007444       0.19289436       1.61147981
H        0.16145138      -1.51363050      -0.02135800      -0.17601856       1.44539229       0.29572034
4
Properties=species:S:1:pos:R:3:forces_ref:R:3 energy_ref=-15.95570775291409 pbc="F F F"
C        0.17967094      -0.38534456      -0.30721775      -0.14861702      -2.31914422       1.28357224
O       -0.23141606       0.50891344       0.38335625      -0.02434285       0.02493045      -0.06130415
H        0.61615194      -0.22976156      -1.28560475       0.18588193       0.18273341      -0.55812704
H        0.15715094      -1.52947856       0.06206125      -0.01292211       2.11148037      -0.66414104
4
Properties=species:S:1:pos:R:3:forces_ref:R:3 energy_ref=-15.729973356486314 pbc="F F F"
C        0.17524325      -0.41909594      -0.27859300       1.24239149       4.71267973      -3.17282556
O       -0.23904475       0.51339206       0.38335600       0.21376513      -1.12663908      -0.30562135
H        0.70521525      -0.18786094      -1.37147800      -1.16516681      -0.58275878       2.33324647
H        0.15568325      -1.40469994      -0.02381200      -0.29098976      -3.00328187       1.14520044
4
Properties=species:S:1:pos:R:3:forces_ref:R:3 energy_ref=-16.07243972882781 pbc="F F F"
C        0.17570681      -0.39921413      -0.30366912       0.12207552      -0.36265151       0.33654108
O       -0.22873419       0.51280688       0.38335588       0.14075927      -0.31404264      -0.39736716
H        0.65633781      -0.24103013      -1.29624913      -0.23903728       0.05050341       0.31326478
H        0.11929481      -1.46614012       0.05141688      -0.02379746       0.62619073      -0.25243864
4
Properties=species:S:1:pos:R:3:forces_ref:R:3 energy_ref=-15.382199062424164 pbc="F F F"
C        0.17219844      -0.42971694      -0.25773113       1.34509041       4.25552613      -3.88020593
O       -0.23506756       0.51654306       0.38335587       0.18719597      -1.72857346       0.10564890
H        0.73000744      -0.07844594      -1.43406312      -1.29586134      -1.42571939       3.02606148
H        0.11734244      -1.47559694      -0.08639713      -0.23642499      -1.10123324       0.74849560
4
Properties=species:S:1:pos:R:3:forces_ref:R:3 energy_ref=-15.839166999110908 pbc="F F F"
C        0.16781025      -0.41483769      -0.33099587      -2.47650264       0.55030410       5.00378699
O       -0.20009875       0.52290931       0.38335612       0.69880429      -0.35123329      -1.48161805
H        0.66629125      -0.31403369      -1.21426988       1.42039787       0.37444022      -2.68124233
H       -0.07236275      -1.38021469       0.13339612       0.35730047      -0.57351109      -0.84092661
4
Properties=species:S:1:pos:R:3:forces_ref:R:3 energy_ref=-15.855448063514181 pbc="F F F"
C        0.16734631      -0.38633881      -0.30267688       1.22967024      -2.39023796      -0.25162314
O       -0.23072769       0.49806219       0.38335613      -0.74378400       0.48599726       1.22441403
H        0.54247331      -0.11548781      -1.29922688       0.01178748      -0.54586036      -0.33310002
H        0.29927031      -1.55097681       0.04843912      -0.49767372       2.45010101      -0.63969087
4
Properties=species:S:1:pos:R:3:forces_ref:R:3 energy_ref=-16.05325675979562 pbc="F F F"
C        0.17564937      -0.39231112      -0.29170250       0.32403441      -1.30385372      -1.26985365
O       -0.22100062       0.50967787       0.38335650      -0.14943407       0.51548889       0.46108918
H        0.59430737      -0.24921912      -1.33215150      -0.19716383       0.12872481       0.71495926
H        0.11980137      -1.47433712       0.01551450       0.02256349       0.65964001       0.09380516
4
Properties=species:S:1:pos:R:3:forces_ref:R:3 energy_ref=-15.764760819952837 pbc="F F F"
C        0.18550581      -0.40562550      -0.27401675       0.50755539       0.11132631      -2.50047967
O       -0.23586519       0.51817550       0.38335625       0.36639226      -1.05330227      -0.16228717
H        0.70899281      -0.17852850      -1.38520775      -1.03269827      -0.62923667       2.60628613
H        0.06489381      -1.53312250      -0.03754175       0.15875057       1.57121262       0.05648071
4
Properties=species:S:1:pos:R:3:forces_ref:R:3 energy_ref=-16.010802041233863 pbc="F F F"
C        0.17642362      -0.38724550      -0.28812600       0.22956585      -2.26963799      -1.67550028
O       -0.21625537       0.50942750       0.38335600      -0.24241694       0.90847659       0.80852500
H        0.57040462      -0.25647550      -1.34287900      -0.11199772       0.18942373       0.79844735
H        0.10109662      -1.49547150       0.00478700       0.12484882       1.17173767       0.06852793
4
Properties=species:S:1:pos:R:3:forces_ref:R:3 energy_ref=-15.889687468740348 pbc="F F F"
C        0.17407469      -0.38094994      -0.31395063      -0.85737226      -3.16907278       2.85970657
O       -0.21709531       0.50747006       0.38335638      -0.17672314       0.79250343       0.21638000
H        0.56120469      -0.26856794      -1.26540663       0.92383256       0.54631591      -2.33915816
H        0.13110969      -1.50549294       0.08225937       0.11026285       1.83025340      -0.73692841
4
Properties=species:S:1:pos:R:3:forces_ref:R:3 energy_ref=-16.079559291023237 pbc="F F F"
C        0.17566506      -0.39696481      -0.30109412       0.04165373      -0.68746496       0.04990702
O       -0.22399694       0.51006519       0.38335588      -0.01469653       0.06722685       0.02116795
H        0.61019506      -0.23333081      -1.30397413      -0.04017138       0.04673207       0.08258729
H        0.12779006      -1.46540181       0.04369188       0.01321419       0.57350605      -0.15366225
4
Properties=species:S:1:pos:R:3:forces_ref:R:3 energy_ref=-15.871467282926535 pbc="F F F"
C        0.17829319      -0.40178187      -0.27107000      -0.01956404      -0.72728590      -3.29741367
O       -0.20601681       0.51842212       0.38335600       0.15290825       0.41239845       0.59414697
H        0.61361219      -0.26427987      -1.39404700      -0.44898057      -0.05124209       2.28212142
H       -0.03523681      -1.47240587      -0.04638100       0.31563636       0.36612949       0.42114529
4
Properties=species:S:1:pos:R:3:forces_ref:R:3 energy_ref=-15.715600909610368 pbc="F F F"
C        0.17493019      -0.42286650      -0.26569487       0.38701708       3.03751168      -3.99547682
O       -0.20383181       0.51741150       0.38335612       0.20489555      -0.38104076       0.59542229
H        0.60535919      -0.17018550      -1.41017287      -0.54728768      -0.91192377       2.62554194
H       -0.02428581      -1.43190750      -0.06250687      -0.04462494      -1.74454721       0.77451259
4
Properties=species:S:1:pos:R:3:forces_ref:R:3 energy_ref=-16.060209511623114 pbc="F F F"
C        0.17767725      -0.39149750      -0.29565988       0.21129394      -1.35346969      -0.63951990
O       -0.22516475       0.50941450       0.38335612      -0.08658144       0.33900342       0.25633088
H        0.60224125      -0.24829650      -1.32027787      -0.13170713       0.16498369       0.42366122
H        0.13301325      -1.47803450       0.02738813       0.00699464       0.84948252      -0.04047225
4
Properties=species:S:1:pos:R:3:forces_ref:R:3 energy_ref=-16.07700202537441 pbc="F F F"
C        0.17507094      -0.39995475      -0.30444087      -0.18124206      -0.46592892       0.54493692
O       -0.22220206       0.51310525       0.38335612       0.13883141      -0.16005864      -0.29304433
H        0.63509894      -0.24200575      -1.29393487      -0.03630367       0.04734306       0.04103322
H        0.09209194      -1.46310775       0.05373113       0.07871433       0.57864450      -0.29292581
4
Properties=species:S:1:pos:R:3:forces_ref:R:3 energy_ref=-16.044486530460656 pbc="F F F"
C        0.17895744      -0.40800925      -0.30996000      -0.14797795       0.56266190       1.16733852
O       -0.23334556       0.51170875       0.38335600       0.23580304      -0.95732545      -0.61159447
H        0.65429544      -0.17207625      -1.27737700      -0.10677345      -0.40215615      -0.00103939
H        0.13872444      -1.47353825       0.07028900       0.01894831       0.79681969      -0.55470465
4
Properties=species:S:1:pos:R:3:forces_ref:R:3 energy_ref=-16.050922857121204 pbc="F F F"
C        0.17435831      -0.40109356      -0.29544263       0.47833465      -0.17639605      -0.84746667
O       -0.22701369       0.51248544       0.38335637       0.04248244      -0.29166946      -0.07277765
H        0.65034431      -0.21559256      -1.32093062      -0.48859382      -0.20459324       1.01873136
H        0.11961531      -1.47772956       0.02673538      -0.03222328       0.67265874      -0.09848699
4
Properties=species:S:1:pos:R:3:forces_ref:R:3 energy_ref=-15.67352163878696 pbc="F F F"
C        0.17209306      -0.38895938      -0.32680500      -2.01901830      -2.21123389       6.48869122
O       -0.21130394       0.50293063       0.38335600      -0.19952785       0.97308816       0.05937146
H        0.49901206      -0.26863938      -1.22684200       2.07328668       0.91451431      -5.89915841
H        0.15886106      -1.42104937       0.12082400       0.14525947       0.32363141      -0.64890422
4
Properties=species:S:1:pos:R:3:forces_ref:R:3 energy_ref=-16.078699521621466 pbc="F F F"
C        0.17731387      -0.39851025      -0.30107600      -0.03436871      -0.48201503       0.08794001
O       -0.22521013       0.51156575       0.38335600       0.09151174      -0.11211548      -0.14950997
H        0.62505988      -0.23583925      -1.30402900      -0.10042730       0.02732312       0.23827181
H        0.11273788      -1.46562525       0.04363700       0.04328422       0.56680734      -0.17670180
4
Properties=species:S:1:pos:R:3:forces_ref:R:3 energy_ref=-16.04068297957683 pbc="F F F"
C        0.17221181      -0.39238719      -0.29851488       0.61848575      -1.39385349      -0.46210451
O       -0.22795919       0.50916481       0.38335613      -0.17921161       0.13942574       0.20071514
H        0.62735581      -0.22413019      -1.31171288      -0.30763092      -0.00194298       0.49143365
H        0.16304681      -1.49486519       0.03595312      -0.13164322       1.25637068      -0.23004423
4
Properties=species:S:1:pos:R:3:forces_ref:R:3 energy_ref=-16.056770564304326 pbc="F F F"
C        0.17509869      -0.39546987      -0.29540363       0.42803945      -0.90118263      -0.80211699
O       -0.22624831       0.51040313       0.38335638      -0.07009676       0.06971943       0.15643148